195
Lattice="20.84345573 0.20682846 0.03796356 0.0 10.27313248 0.16998885 -0.0 0.0 10.28156127" Properties=species:S:1:pos:R:3:forces:R:3 energy=-1859.46597599 stress="0.012174278782235991 0.0028605029124139873 0.0014310574940577738 0.0028605029124139873 -0.01679094155460042 0.008998765250238759 0.0014310574940577738 0.008998765250238759 -0.03948165672172565" free_energy=-1859.46597599 pbc="T T T"
H       11.31378046       7.03571185       5.00774746      -2.27028050       0.93311954       1.55621336
H        8.35058975       5.43037688       5.18037839      -2.56822367       1.51984574      -0.45191988
H        7.83974083       6.10532358       4.86423485       1.13697195      -3.18984329       0.26862154
H        9.40790885       6.82662520       4.85337016       0.60508062       1.56490182      -1.18067584
H        9.18643963       6.79460272       0.52504228       0.20291028      -0.51846712      -0.54721325
H       10.45275939       6.03050483       2.75345739       0.76510513      -0.63579206       1.20176822
O       14.35260831       3.85569514       3.73633557      -1.66372951       1.69936788       1.43562985
O       16.70286677       9.06417817       1.60728104       1.54361085      -0.16199499      -0.01146133
O       16.85651493       3.87325053       4.26676389       0.58454569      -0.71271988      -1.73931657
O       19.61419063       6.94748175       6.60345385      -0.27542255      -2.26851768       1.02341698
O       17.02828981       6.45687934       3.86874579      -0.55418792      -0.13944777      -2.24931543
O       19.46218139       9.36600461       0.90568187      -1.46726855      -0.24290504       2.49673109
O       16.94483366       6.49153358       0.89523829       0.76042506       0.50949827       3.17303884
O       14.32351272       6.42295491       4.15287714      -0.78506513      -0.09781659      -1.62738280
O       11.66243540       9.27235000       4.12019420       0.82601985      -1.25094253       1.94555847
O       14.39200474       6.50429036       1.55170218       0.52407402      -0.61275471       0.38748621
O       11.67029505       9.16876366       1.54643521      -0.67055675      -1.45311927       0.27728653
O       14.44124261       8.77924400       3.82395580       1.13072494       2.32750028      -0.79424351
O       11.94014714       6.82450626       4.34843789       1.22961741      -1.20517521      -5.55049858
O       14.11421150       8.99064181       1.24809013       1.94724155       1.23618390      -0.15882672
O       19.52605512       1.36566201       1.59396431       0.86219353       1.43674494       0.63705164
O       18.95227876       1.25707616       4.08531228       1.61585452       0.77331197       1.91967782
O       19.35662262       8.97218828       3.55918839       0.91085179      -0.30509361       0.84647387
O       16.86503469       3.90817300       1.59683733       0.74758391       0.19908176       0.49669124
O       19.54996985       3.95440623       3.70937957      -0.50096484      -0.67402177       0.97418465
O       16.54532235       1.15795595       3.51157645       0.35608137      -0.64071612       0.47890950
O       19.66469682       4.17040353       1.14732948      -1.20106334      -1.39140768      -0.26681750
O       17.13725627       1.11098674       1.14822425      -0.46481208       1.39744894      -1.01154951
O       14.15155547       1.31965476       4.73313851       1.30757683       0.18240284      -1.82794293
O       11.80683178       4.00634357       3.93445297       0.95735989      -1.13999405       0.31197420
O       14.47190312       1.40135234       1.54586157       0.97130958      -0.59963700      -0.15133621
O       11.82129693       3.69919049       1.38388176       0.21891130       2.56841210       1.03619475
O       11.44684258       1.36942393       3.76741711       1.59754143       1.30390613       1.76375955
O       11.88051423       6.56191996       1.16189167       2.52956929       1.14393632       1.52253249
O       19.51763415       6.75385534       1.78204810      -0.86247273      -0.48116066       0.01945279
O       14.33032624       3.82164029       1.25685288       0.36748525       2.54607822       0.58367989
O       12.03009729       6.65524042       6.50438223      -1.53435461      -0.54463324       2.03019642
O       14.19157782       9.43571366       6.30180228       2.85617112       1.23051103       1.40631859
O       11.71737104       6.39761187       8.98548338      -0.09998186       0.95234332       0.26887078
O       14.37789205       9.21453726       8.86842475      -0.27111418      -1.13096425       0.95340393
O       11.70143226       9.08469519       6.87529604      -0.30385061       1.00598619      -0.17516491
O       14.42358799       6.49560418       6.69103343       1.11236838       0.80651546      -0.16285804
O       11.58939222       9.06414408       9.38771333       0.93555275       0.18494759      -0.39865431
O       14.24303802       6.60116570       9.25081038      -0.27316858      -0.00460651       0.38954437
O       17.00406701       6.74710306       6.25450380      -0.67042498       0.65397427      -0.28308031
O       19.50549451       9.32630847       6.29754702      -0.32170542      -0.20523491      -0.96044397
O       16.49524782       6.21755139       8.71252333       1.38921486       0.61377927      -1.15901779
O       19.47310440       9.24269559       8.80605257       1.01474274       0.04624782       1.22934132
O       16.98331776       8.90874815       4.01626830       0.22925754       1.21243856       1.60437401
O       19.77602255       1.76471883       9.32228607      -0.49978810      -0.34610801      -0.60150854
O       11.88846475       4.01601922       9.21154140       0.35014223       0.54467431      -0.51597360
O       17.44820603       4.03910400       9.29528385       0.46744042      -1.05979586      -0.26789728
O       19.50376054       1.47330981       6.76149348       0.01834737       0.00303199      -0.46782247
O       16.85384218       4.19976374       6.52557070       0.89927988       0.19420959       0.60365524
O       17.05087557       1.34701519       9.04428242       1.00492337      -0.41974450      -0.14879390
O       19.48400449       4.05080697       6.59641877       0.16132032       0.50864308      -0.42005436
O       16.85875018       1.51423953       6.22405397      -0.33519813      -0.89020721       0.31990590
O       14.46458832       1.38117955       9.02861279      -1.87652723       0.30274458       0.73160164
O       11.56323118       4.09579454       6.86392401       0.80531540      -0.63428786      -2.38396787
O       14.51977262       4.13290315       8.93969787      -0.90829122       0.08710782       1.31374554
O       11.50056825       1.69162793       8.93464509       1.91313835      -2.95896384       0.55516935
O       14.20630580       3.92570843       6.39512045      -0.99856023      -0.68064272      -0.40867756
O       12.45597932       1.35611948       6.55827916      -2.13272458       0.77974823      -0.54046740
O       19.42360745       6.52839982       9.37957605      -0.23193395      -0.06898867       0.19690348
O       11.76350240       1.31237409       1.20022625      -0.35840581       0.27365318      -1.14450241
O        1.11950930       1.34398757       0.91543626       0.83099952       0.29994831       1.84004058
O       17.00095904       9.15987878       6.80535367      -0.16830227       1.19531138      -0.80228978
O        6.53271296       9.28362187       4.16332348       0.83542651      -1.77682828       0.23570771
O        9.12385090       9.24280139       6.13955256      -0.75920794       0.25704319       0.60432062
O        6.49254449       6.61381905       6.46848714      -0.65817684       0.25463828       0.32795800
O        3.85205717       6.34246001       9.21580646       0.28054176      -0.37884506       0.18048865
O        1.19663134       8.84170585       9.32091883      -1.05015162       2.92560676      -1.33538823
O        4.21839403       6.17602817       6.92929040      -1.41533430       0.45080909      -1.86632914
O        1.23956094       8.98127936       6.73822505       1.34591223       0.61551754      -0.69071831
O        3.85106773       9.05199156       8.82243840       0.98659459      -2.50813140       1.28810505
O        1.16020219       6.52187549       8.75112284       0.88618254      -2.11593140      -0.17526799
O        3.94370105       8.86982309       6.28961704       0.19354958      -0.40244922       0.94071764
O        1.60503509       6.02286958       6.12302127       0.32247118       1.10728540       1.21311199
O        9.09012535       1.36053631       9.42699107      -0.74864545      -0.71216404      -1.38784534
O        6.65366232       4.07744444       9.38663131      -1.69049042      -0.96839976      -0.74661709
O        9.00368379       8.92608975       8.68866829       0.28642573       0.52028746       0.79464756
O        6.53844783       9.14537601       1.50288492       0.79328909      -0.17112632       0.57805884
O        9.12676919       3.87372385       8.97152550       0.00354168       0.12561785      -0.60165614
O        6.60062552       1.35114781       8.70591048      -0.71244265       1.51473978       0.87183201
O        8.99680003       4.09656074       6.30480817      -0.98402219      -1.62793253       1.68608705
O        6.39090013       1.41438278       6.18781615       0.68959327       0.74118697       0.12944067
O        3.95642744       1.15672484       9.16856923       0.18602909       2.11529727      -0.01071841
O        1.00170751       3.70370857       9.10955702       0.17679519       1.26293600       0.79072239
O        3.91477763       1.27844985       6.56261179      -0.78261521       0.00518612       0.66355868
O        1.38682058       3.54953315       6.44415321       0.09259119       1.15696774       2.55771697
O        3.74693341       3.80464002       8.89791797       1.26587853      -0.94984315       0.49976464
O       16.96994794       8.89240725       9.42574609      -0.53705301       0.46236960      -0.87271035
O        1.44298494       1.19450239       8.90002404       0.53972751      -0.79896147      -1.74955183
O        4.06319658       3.91495664       6.20463036      -1.07552508      -1.40364489      -0.10723820
O        1.17976815       1.26409614       6.25951016       1.31921742      -2.44314339      -1.18756524
O        6.59040806       4.10600469       6.85115172      -1.53837649      -1.25632112      -0.71988765
O        6.62601494       9.13153648       6.85502331      -0.98311198      -0.16222920      -1.28273297
O        3.79956272       4.03873209       1.19051496      -0.79558763      -1.27527722      -0.58547477
O       19.49002303       6.33216329       4.26433477      -0.15535945       0.26438965      -0.39190865
O        9.28543312       6.61568244       1.49348397       0.58323965       0.14730406       1.48755877
O        3.70700944       3.62768826       3.53232064      -1.66550957       0.55559599       1.77056446
O        8.93352409       1.60055641       4.13226228       0.90907302      -1.55131500       0.07564097
O        9.13246487       1.40914956       6.68044030       1.78946227       1.32352418       0.32208592
O        6.31047649       9.07985561       9.17415919       0.16610863       0.70454905       1.35485419
O        3.77842995       1.23710049       1.37740645       0.34100893       2.03274071      -0.07292713
O        1.37271310       3.82564920       4.18735258      -1.02363682       0.49742052      -2.00006678
O        3.81845793       1.07556590       3.93157710      -0.02646242       1.27199511       1.24366596
O        6.52367774       1.32427664       1.13637751       0.31167351       1.11336224      -1.13535169
O        9.28735238       4.00411865       1.11538410      -0.82341551      -0.85314013       0.16475228
O        6.35023642       1.31405807       3.50742603       1.06773299      -0.35941053       1.85399311
O        9.13042055       3.95788060       3.82362426      -0.31017641      -0.35451052      -0.93588017
O        6.31432440       3.86451136       1.37740474      -0.34132984      -1.20110029       0.62892723
O        9.12414229       6.39276294       9.43228675       0.62195979       0.17504049      -0.14815287
O        8.95580429       6.77031433       6.99541259      -0.17514599      -0.73659530      -0.23392600
O        9.09032941       1.40086439       1.56435541       0.33055649       0.09637679       0.81824970
O        1.35303771       6.29825787       1.30243979      -0.20738383      -0.06731542      -0.55332923
O        6.46008206       6.59274047       9.13664394      -0.63270113      -1.51045945      -2.19121587
O        4.08641682       8.99475138       1.35117866      -0.54564063       1.12312585      -1.17718805
O        1.16346252       6.39242990       3.85522831      -0.34459883      -0.15746971      -0.81134658
O        3.90292145       8.94330650       3.88138791      -0.07087780      -1.32088527       0.16139823
O        1.12169286       8.82418231       1.49284066      -0.10722012       0.76275955       0.83194863
O        4.04787018       6.54627648       1.74544488       0.20947369      -1.49106582      -0.82673539
O        1.13071183       8.87998249       4.25788034       0.09920038       0.28780585      -0.13979948
O        3.60087227       6.29615877       4.12195949       1.61846222      -0.47110800       2.21652435
O        6.87332358       6.65620722       1.28746408      -1.70591634      -0.73542622      -0.46005869
O        9.06267077       9.03788892       1.03166333       0.11879114       0.45310515       1.36656469
O        6.31940437       6.58335101       3.80906692       0.44802430      -0.59305376       1.65950212
O        9.23368486       9.34517100       3.73999053       0.05986136      -0.54902651      -1.27087798
O        6.19069999       3.79024380       3.98956637       1.25915285       0.68786553       1.75045467
O        0.98861824       1.21739659       3.78066125      -0.33676643       0.98275292      -1.40763572
O        1.35650752       3.77746047       1.57082976      -0.48908294      -0.37734920      -0.29781024
Y        2.46569139      10.09825789       2.64448919       0.62764876       0.76786914       0.67923817
Y       15.97287810       2.92482430       7.97018882      -1.22238688      -0.82515259       1.00972459
Y       12.91955903       0.13855046       2.66646854       1.33987625       0.57855489      -1.43154202
Y        2.66159445       7.75957204      10.30323984       0.57590429      -1.01360453       2.03781464
Y       10.42932551       5.03251455       5.16827943       0.02831462       2.62511514      -0.44177515
Y        7.74326272       4.95410958       2.39678907       0.31825051       3.12765321       1.47177904
Zr       7.83146806      10.28431788       2.61803136      -0.30389455       1.53653394       0.31165896
Zr      13.11268678       5.27478410       2.63110828      -1.24109111      -0.50540438       0.43068580
Zr      15.55763373       5.32852557       0.22441228      -0.55010784      -1.76817206      -2.96537576
Zr      15.81776673       7.76744340       2.73555071      -2.08299857      -2.13209215       0.26401710
Zr      18.46713753       7.83460719       5.14954578      -0.30406562       0.12617985       0.11871066
Zr      12.91976622       2.75793995       5.26341650       1.56928475      -0.41735503      -0.67878334
Zr      10.48868309       8.01196227       2.61755445      -0.93137899      -1.28318735       1.43417540
Zr      10.38636131       2.86809611       7.83154632      -2.51666737      -1.29452548      -0.00801914
Zr      12.78682978       0.16506649       8.12087084       0.81457002      -0.54575687      -1.91259109
Zr      15.92543297      10.24106779       5.12457227      -3.13717885       0.27123313       2.91693039
Zr      10.44766650       0.24722827       5.13482924      -1.62483399      -2.86728996       0.85570442
Zr      13.15667898       7.85538874      10.26243286      -0.79813448       0.17129401       0.71960937
Zr      15.63476952       2.75738792       2.79641409       0.04599790      -0.53402584      -2.50950365
Zr      18.16383440      10.42281079       2.75794581      -0.42152607      -0.37176281      -0.92825582
Zr      18.25227965       2.70136858       5.50129496      -0.20978535       1.65678483      -1.30120040
Zr      18.36701828       2.51105282       0.24451038      -2.43557841       1.39044776      -1.54142262
Zr      15.53876415      10.26117345       0.32264480      -0.56268541       1.54343128      -1.17993722
Zr      10.38391325       2.64251954       2.80762568      -1.87184721       1.57245139      -3.12050694
Zr      13.10884533       2.84656353      10.29090733       0.59282930      -3.04080303       0.10067814
Zr      18.31881425       7.87082330       0.39959123       1.18643053      -1.25091949      -3.42395845
Zr      18.20695409       5.18575945       2.71866003       0.57909197       0.62213539       0.11128092
Zr       7.78324714       5.19702182       8.12310239       1.57167425       1.63107225      -2.31135529
Zr       0.04620640      10.24866744      10.38473739       1.58730340       0.25016419      -0.28380414
Zr      18.03087295       5.56473809       7.39929391       1.58575941      -1.15607573       3.80950109
Zr      10.91739275       5.25016658       0.19461849      -5.25954449      -2.09353054       1.06893747
Zr      18.18988372      10.42311869       8.06768883      -1.96193444       0.38744677      -1.95834519
Zr      13.28524704       8.12587565       5.27762113      -2.21838508      -2.06912918       1.52102967
Zr      10.53875699       7.55712197       7.85511809      -1.33133682       2.66116572      -1.15468510
Zr       5.22513357       0.19802645       0.17869972       0.10974292      -2.23892473      -1.22273834
Zr       0.21069107       5.17379730       0.09006743      -0.85200288       0.70207312      -1.11947865
Zr      15.79590965       7.83146924       7.77094142      -2.01116825      -0.40542044       1.41347047
Zr       0.07421000       7.70229546       2.80947752       0.11953842      -0.90923399      -1.77805173
Zr       2.52817507       5.24876657       2.70115097       1.36305145      -0.69080872      -0.36138522
Zr       5.08135333       5.11696070       0.19862762       1.32852227       2.93052714       0.65370983
Zr       7.63198993       7.90740639      10.10942043      -0.41286150       0.78011946       1.87087428
Zr       5.00290190       2.50767548       2.70534860       1.50637734      -0.10240781      -1.59844247
Zr       5.38987649       8.00681687       2.80921322      -1.70187053      -1.27616995      -2.72996073
Zr       7.64496040       7.99069600       5.50108756       2.62698676      -0.36041999      -0.28834099
Zr       2.66820683       2.47659689       5.12347958       1.08098596       1.06342175       0.00825209
Zr       0.29030661       2.26582012       7.63115363      -1.21723222       2.96869229       2.14578167
Zr       2.64288140      10.13992428       7.95613906      -0.69556615       2.16963752      -1.87843145
Zr       7.94031175       2.75444075       0.11794032       0.54517439      -1.64874388       0.38395980
Zr       7.60049631       2.67218037       5.11931708       0.65021406       1.21913528       0.37276427
Zr       7.95166372       0.15056775       7.72075976      -0.17552892      -0.65979064      -0.29292278
Zr       0.09328635       4.99070909       5.17670833       0.94011560      -0.15481575       0.88875045
Zr       2.63094519       7.68395435       5.16608666      -0.49782842       0.69569717       0.03052133
Zr      20.76420912       8.17357309       7.76454434       0.39567528      -2.46828412       1.56026792
Zr       2.66996914       5.17402379       7.72680572      -1.69530811      -0.29122738      -0.14168159
Zr       5.31270193       5.32411536       5.33784185       0.27678039      -0.77662147      -0.76553378
Zr      20.70009611       2.79278904       2.53038608       3.09871421      -0.21890032      -0.47398771
Zr      20.75411109       0.35780941       5.17227848       0.23190609      -1.30451929      -0.15250049
Zr       2.74858336       2.58535460       0.16225991      -2.33167337      -1.00926132      -0.95447705
Zr      15.29459995       5.15400963       5.23060504       2.87825186      -0.35925052       0.76011922
Zr       5.15298833       7.64016648       7.85851335       1.17664575       2.14164758       0.96640734
Zr      10.38846942      10.32305508       0.27769023       0.53403648       2.28894485       0.46816714
Zr      12.92499230       5.33532525       7.75058964       3.13271647       0.04718997       0.15662504
Zr       5.28767832       2.66698659       7.91969054      -0.62808062      -0.84185544      -2.52335520
Zr       5.24587969       0.07526929       5.17019199      -1.97152001       0.55951824      -0.15692338
195
Lattice="20.7006983 -0.02685406 -0.23761884 0.0 10.30928465 -0.06549431 -0.0 0.0 10.49823794" Properties=species:S:1:pos:R:3:forces:R:3 energy=-1857.76243329 stress="-0.009980418595807289 0.0009239636696613568 -0.002103573867104078 0.0009239636696613568 -0.0177402621227913 -0.003338693912116284 -0.002103573867104078 -0.003338693912116284 -0.0031198546309483136" free_energy=-1857.76243329 pbc="T T T"
H       11.15009103       6.94952491       4.26223047      -2.99400151       0.87171494       3.00887829
H        7.81615145       4.93499761       5.23450178       0.27241168       1.08008038      -0.06985214
H        7.52975418       5.60285677       4.87592996       0.80486738      -0.84112006       0.11884582
H        9.57789100       7.48525231       3.99953766      -0.45553085      -2.14378895       1.57428585
H        8.93711682       6.76127631       0.44534309       0.53859559      -1.41602236       0.54500697
H       10.33878139       4.99352866       2.33036565       0.44157021      -0.09623302       0.77839894
O       14.01613831       3.62367901       3.78597451       2.39842840       1.35532773      -0.34334694
O       16.67914073       8.81365244       1.10994584      -0.58321296       0.97447309       1.09953463
O       16.78049487       3.58802406       3.82131375       0.11138968       0.18141047       0.03774682
O       19.59370031       6.63377421       6.62441585      -2.26837693      -2.26354721      -0.47990859
O       17.05350954       6.23318614       3.43478991      -0.50476958       0.51196621       0.21296274
O       19.12599804       9.46211638       0.70736433       0.28416467      -1.54064711      -0.46046452
O       16.76832161       6.30126563       0.78803432       1.54525281       1.14953360       0.36870494
O       14.32967399       6.12381082       3.54561352       0.93968935      -0.10055454      -0.86149711
O       12.00739699       9.22719117       4.18944453      -2.62368812       1.63827159      -1.19189529
O       14.41414670       6.48314352       1.00424179      -2.53165054       0.17294787       0.07501130
O       11.53887829       9.24360227       1.48985420      -0.95151980      -0.40791109      -0.06041723
O       14.46747543       8.77258027       3.91896385       1.12021315       0.40455883      -1.13766159
O       11.82064564       6.80090216       3.65391876       3.51565104      -1.58956415      -2.95990564
O       13.98688802       9.02821016       0.86414720       0.97043516       0.68515026       0.83784263
O       19.23094831       1.51878136       1.56153598      -0.14039634       0.25685363       0.08083472
O       18.89811565       1.15959033       4.17641277      -0.02497670      -1.42417822      -0.66132133
O       19.55138704       9.03920243       3.36388359      -1.19099805       0.08975570      -0.40059137
O       16.92227105       3.82012760       1.18496773       0.30568282      -0.64189382       0.48676426
O       19.41796607       3.79093807       3.70928352       0.70382865      -0.98116409       0.30915737
O       16.49886725       0.90568817       3.26850690      -1.72945060       0.49956505       1.47567755
O       19.61270065       3.90142016       0.86674058       0.38643559       1.63697920      -0.08282785
O       16.62911770       1.26930180       0.85449696      -0.18216853      -0.78177097       0.15229651
O       14.19706800       1.29973391       4.21290814       0.77461663      -1.96520121       0.86672829
O       11.71991646       3.84057968       3.74988176       0.47289422       0.20259073      -1.00266609
O       14.18089827       1.29781334       1.24867854       1.30670744       0.10308330      -0.28139735
O       11.83444556       3.91595425       0.99209734       0.69663791      -0.19358931       1.33373045
O       11.33942479       1.38643817       3.91028294       1.17397712       0.34528329       0.19779536
O       11.92200951       6.43995766       1.04066023      -0.52130710       1.24838676       0.19935115
O       19.10220466       6.77670560       1.53835502       0.44816098      -0.74043243      -1.14600342
O       14.39469902       3.88749056       1.21171944      -0.89793139       0.08108310       0.57178630
O       11.46706074       6.21171770       6.31120911       1.05743410       0.28597111       0.72109682
O       14.26241473       9.17030127       6.46392849      -0.06392216       2.07514028       0.10038037
O       11.58391328       6.57039273       8.93989075       0.76196322      -1.01643136      -0.52824890
O       14.11140520       8.85779450       8.85675758       0.74647016       0.92526008      -0.34161753
O       11.48010218       8.88585974       6.60501804       0.51783523       0.54928755       0.66165098
O       14.11620383       6.56326822       5.99363811       1.38899454      -2.41665068       2.54796205
O       11.61867700       8.94295815       9.41773420      -0.57352571       0.66995412      -0.88202633
O       14.23443483       6.39457113       8.88711247      -0.00397160      -0.73729103      -0.14407643
O       16.79563701       6.72126499       6.15522867       1.43468155      -0.84378715      -0.62900034
O       19.46048055       8.98337465       5.93857857      -1.63440396       1.22532856       1.07228145
O       16.76013283       6.19365000       8.61923043      -0.00061868      -0.06652778       0.48991885
O       19.17363987       9.03300648       8.79789790       0.35712537      -0.42242751      -2.11975969
O       17.05850442       8.91200697       3.81778361      -0.46659410      -0.19737884       1.02575519
O       19.79457491       1.50408348       9.36375138      -0.50708876       0.42584433      -0.51124452
O       12.04074209       3.99404946       9.13407490       0.26786869       0.00426655      -2.38697695
O       17.84655164       3.65294538       8.84841439      -0.20252270       1.41326734      -0.11515571
O       19.61947806       1.37525395       6.62052768      -1.85766585      -2.37291510      -0.53137152
O       16.74174895       4.04153274       6.28064070       1.47526634       1.07225708       0.89593639
O       16.93427745       1.28638182       8.83095140       1.95771867      -3.80272293       1.12101193
O       19.38992677       3.73332431       6.42667120       1.47575491       2.31766707      -0.19793023
O       16.79171961       1.45801654       6.18155037      -0.76317106      -2.34109754       0.25945292
O       14.17954859       1.19569575       9.06849256       0.73807667      -1.03362522      -0.51003519
O       11.41822096       3.48561053       6.19551430       0.53344250       2.02070448       0.16273208
O       14.69590039       3.77499471       9.23729990      -1.76443918      -0.33736257      -0.11288114
O       11.61562530       1.10158474       9.33268134       1.96318852       1.32874382      -1.10783768
O       14.24434033       3.98920516       6.44638284      -2.17648588      -1.70091584       1.32556395
O       11.93464439       1.18689816       6.64046540       0.80062034      -0.63623467      -0.39187723
O       19.52684140       6.32042694       9.38666640      -1.02032956       0.40180341      -1.14193095
O       11.53076134       1.70563118       1.23701609       2.41062502      -3.68781311      -1.48134751
O        1.34144934       1.06950716       0.97447699       0.85119884       2.39069583       1.63955818
O       16.61473961       9.09402719       6.55224876       2.17659911       2.43221706      -1.70680650
O        6.21001966       8.87817523       3.95498669       2.18637868       2.10974833       1.98285842
O        8.69392813       9.29080323       6.05375823       0.34326455      -1.36709254      -0.55867802
O        6.27876420       6.47493335       6.58114714       0.08261925      -0.63117750      -1.22284815
O        3.98228379       6.08660006       9.23451121      -2.14883850       1.69711518      -2.09871728
O        1.04853612       9.05222449       9.15860670       1.86192449      -0.86410006       0.96310991
O        3.79198372       6.37312360       6.66956529      -0.38803791      -1.30601281       1.35294560
O        1.13433120       8.78393076       6.65008929       3.22951914       1.87016218      -1.89101515
O        3.60898396       8.92266482       8.97968414       1.60697856      -0.38838747      -1.30242345
O        1.21072712       6.22563277       8.63560105       0.50340374      -0.27213466       1.16265428
O        3.61837463       8.76371636       6.37074458       1.25762291       0.48602906      -0.61599156
O        1.36645082       6.19359878       5.92137343      -0.45484854      -1.31015597       1.01191970
O        9.22925874       1.28075841       9.25247168      -0.99812736      -0.34308607      -0.36718830
O        6.40481054       3.64624914       9.40798239      -0.87525375       1.95099765      -1.19507432
O        8.83960763       9.05053502       8.73237374       0.80513879      -1.76032989      -0.13072407
O        6.53353556       9.00865903       1.31766578      -0.02085612      -0.70019847       0.10966934
O        9.01971986       3.77786599       8.95581988       0.32088187       0.81669799      -0.54388566